 VARIABLES = "X", "Y", "U", "V", "T"
 ZONE I= 21, J= 21, F=POINT 
   0.000E+00    0.000E+00   -0.000E+00    0.000E+00    6.716E-01
   1.000E+00    0.000E+00    9.281E+00    0.000E+00    3.284E-01
   2.000E+00    0.000E+00    1.455E+01    0.000E+00    5.208E-02
   3.000E+00    0.000E+00    1.533E+01    0.000E+00   -1.159E-01
   4.000E+00    0.000E+00    1.419E+01    0.000E+00   -2.064E-01
   5.000E+00    0.000E+00    1.283E+01    0.000E+00   -2.545E-01
   6.000E+00    0.000E+00    1.189E+01    0.000E+00   -2.814E-01
   7.000E+00    0.000E+00    1.151E+01    0.000E+00   -2.982E-01
   8.000E+00    0.000E+00    1.166E+01    0.000E+00   -3.102E-01
   9.000E+00    0.000E+00    1.225E+01    0.000E+00   -3.201E-01
   1.000E+01    0.000E+00    1.321E+01    0.000E+00   -3.294E-01
   1.100E+01    0.000E+00    1.443E+01    0.000E+00   -3.387E-01
   1.200E+01    0.000E+00    1.575E+01    0.000E+00   -3.485E-01
   1.300E+01    0.000E+00    1.691E+01    0.000E+00   -3.590E-01
   1.400E+01    0.000E+00    1.753E+01    0.000E+00   -3.706E-01
   1.500E+01    0.000E+00    1.712E+01    0.000E+00   -3.834E-01
   1.600E+01    0.000E+00    1.525E+01    0.000E+00   -3.980E-01
   1.700E+01    0.000E+00    1.175E+01    0.000E+00   -4.150E-01
   1.800E+01    0.000E+00    7.047E+00    0.000E+00   -4.351E-01
   1.900E+01    0.000E+00    2.407E+00    0.000E+00   -4.588E-01
   2.000E+01    0.000E+00   -0.000E+00    0.000E+00   -4.858E-01
   2.100E+01    0.000E+00    0.000E+00    0.000E+00   -5.142E-01
   0.000E+00    1.000E+00    0.000E+00   -9.281E+00    6.716E-01
   1.000E+00    1.000E+00   -9.281E+00    9.281E+00    3.284E-01
   2.000E+00    1.000E+00   -1.455E+01    5.266E+00    5.208E-02
   3.000E+00    1.000E+00   -1.533E+01    7.784E-01   -1.159E-01
   4.000E+00    1.000E+00   -1.419E+01   -1.135E+00   -2.064E-01
   5.000E+00    1.000E+00   -1.283E+01   -1.358E+00   -2.545E-01
   6.000E+00    1.000E+00   -1.189E+01   -9.419E-01   -2.814E-01
   7.000E+00    1.000E+00   -1.151E+01   -3.805E-01   -2.982E-01
   8.000E+00    1.000E+00   -1.166E+01    1.470E-01   -3.102E-01
   9.000E+00    1.000E+00   -1.225E+01    5.952E-01   -3.201E-01
   1.000E+01    1.000E+00   -1.321E+01    9.612E-01   -3.294E-01
   1.100E+01    1.000E+00   -1.443E+01    1.221E+00   -3.387E-01
   1.200E+01    1.000E+00   -1.575E+01    1.317E+00   -3.485E-01
   1.300E+01    1.000E+00   -1.691E+01    1.154E+00   -3.590E-01
   1.400E+01    1.000E+00   -1.753E+01    6.194E-01   -3.706E-01
   1.500E+01    1.000E+00   -1.712E+01   -4.042E-01   -3.834E-01
   1.600E+01    1.000E+00   -1.525E+01   -1.876E+00   -3.980E-01
   1.700E+01    1.000E+00   -1.175E+01   -3.498E+00   -4.150E-01
   1.800E+01    1.000E+00   -7.047E+00   -4.701E+00   -4.351E-01
   1.900E+01    1.000E+00   -2.407E+00   -4.640E+00   -4.588E-01
   2.000E+01    1.000E+00    0.000E+00   -2.407E+00   -4.858E-01
   2.100E+01    1.000E+00    0.000E+00    2.407E+00   -5.142E-01
   0.000E+00    2.000E+00    0.000E+00   -1.986E+01    6.744E-01
   1.000E+00    2.000E+00   -1.058E+01    1.986E+01    3.256E-01
   2.000E+00    2.000E+00   -1.964E+01    1.432E+01    4.378E-02
   3.000E+00    2.000E+00   -2.394E+01    5.079E+00   -1.256E-01
   4.000E+00    2.000E+00   -2.518E+01    1.081E-01   -2.133E-01
   5.000E+00    2.000E+00   -2.525E+01   -1.292E+00   -2.574E-01
   6.000E+00    2.000E+00   -2.521E+01   -9.859E-01   -2.813E-01
   7.000E+00    2.000E+00   -2.550E+01   -8.216E-02   -2.959E-01
   8.000E+00    2.000E+00   -2.627E+01    9.176E-01   -3.065E-01
   9.000E+00    2.000E+00   -2.751E+01    1.827E+00   -3.153E-01
   1.000E+01    2.000E+00   -2.908E+01    2.533E+00   -3.234E-01
   1.100E+01    2.000E+00   -3.076E+01    2.906E+00   -3.315E-01
   1.200E+01    2.000E+00   -3.222E+01    2.774E+00   -3.398E-01
   1.300E+01    2.000E+00   -3.299E+01    1.924E+00   -3.486E-01
   1.400E+01    2.000E+00   -3.253E+01    1.563E-01   -3.583E-01
   1.500E+01    2.000E+00   -3.029E+01   -2.639E+00   -3.692E-01
   1.600E+01    2.000E+00   -2.596E+01   -6.205E+00   -3.825E-01
   1.700E+01    2.000E+00   -1.954E+01   -9.916E+00   -3.996E-01
   1.800E+01    2.000E+00   -1.169E+01   -1.256E+01   -4.219E-01
   1.900E+01    2.000E+00   -4.116E+00   -1.221E+01   -4.501E-01
   2.000E+01    2.000E+00    0.000E+00   -6.523E+00   -4.830E-01
   2.100E+01    2.000E+00   -0.000E+00    6.523E+00   -5.170E-01
   0.000E+00    3.000E+00    0.000E+00   -2.873E+01    6.717E-01
   1.000E+00    3.000E+00   -8.869E+00    2.873E+01    3.283E-01
   2.000E+00    3.000E+00   -1.850E+01    2.395E+01    4.701E-02
   3.000E+00    3.000E+00   -2.467E+01    1.125E+01   -1.231E-01
   4.000E+00    3.000E+00   -2.798E+01    3.419E+00   -2.094E-01
   5.000E+00    3.000E+00   -2.968E+01    4.072E-01   -2.510E-01
   6.000E+00    3.000E+00   -3.073E+01    7.106E-02   -2.722E-01
   7.000E+00    3.000E+00   -3.168E+01    8.588E-01   -2.846E-01
   8.000E+00    3.000E+00   -3.275E+01    1.990E+00   -2.931E-01
   9.000E+00    3.000E+00   -3.400E+01    3.079E+00   -2.998E-01
   1.000E+01    3.000E+00   -3.535E+01    3.878E+00   -3.056E-01
   1.100E+01    3.000E+00   -3.658E+01    4.142E+00   -3.108E-01
   1.200E+01    3.000E+00   -3.740E+01    3.591E+00   -3.157E-01
   1.300E+01    3.000E+00   -3.740E+01    1.925E+00   -3.208E-01
   1.400E+01    3.000E+00   -3.614E+01   -1.101E+00   -3.266E-01
   1.500E+01    3.000E+00   -3.324E+01   -5.536E+00   -3.344E-01
   1.600E+01    3.000E+00   -2.838E+01   -1.107E+01   -3.464E-01
   1.700E+01    3.000E+00   -2.146E+01   -1.684E+01   -3.652E-01
   1.800E+01    3.000E+00   -1.297E+01   -2.104E+01   -3.933E-01
   1.900E+01    3.000E+00   -4.622E+00   -2.056E+01   -4.315E-01
   2.000E+01    3.000E+00    0.000E+00   -1.115E+01   -4.770E-01
   2.100E+01    3.000E+00    0.000E+00    1.115E+01   -5.230E-01
   0.000E+00    4.000E+00    0.000E+00   -3.556E+01    6.655E-01
   1.000E+00    4.000E+00   -6.832E+00    3.556E+01    3.345E-01
   2.000E+00    4.000E+00   -1.580E+01    3.292E+01    5.859E-02
   3.000E+00    4.000E+00   -2.251E+01    1.796E+01   -1.103E-01
   4.000E+00    4.000E+00   -2.674E+01    7.648E+00   -1.952E-01
   5.000E+00    4.000E+00   -2.928E+01    2.946E+00   -2.347E-01
   6.000E+00    4.000E+00   -3.087E+01    1.663E+00   -2.535E-01
   7.000E+00    4.000E+00   -3.202E+01    2.007E+00   -2.636E-01
   8.000E+00    4.000E+00   -3.299E+01    2.966E+00   -2.698E-01
   9.000E+00    4.000E+00   -3.390E+01    3.991E+00   -2.738E-01
   1.000E+01    4.000E+00   -3.474E+01    4.715E+00   -2.764E-01
   1.100E+01    4.000E+00   -3.540E+01    4.805E+00   -2.778E-01
   1.200E+01    4.000E+00   -3.571E+01    3.902E+00   -2.783E-01
   1.300E+01    4.000E+00   -3.542E+01    1.631E+00   -2.786E-01
   1.400E+01    4.000E+00   -3.421E+01   -2.314E+00   -2.800E-01
   1.500E+01    4.000E+00   -3.173E+01   -8.013E+00   -2.846E-01
   1.600E+01    4.000E+00   -2.755E+01   -1.524E+01   -2.960E-01
   1.700E+01    4.000E+00   -2.134E+01   -2.305E+01   -3.181E-01
   1.800E+01    4.000E+00   -1.328E+01   -2.910E+01   -3.545E-01
   1.900E+01    4.000E+00   -4.891E+00   -2.896E+01   -4.062E-01
   2.000E+01    4.000E+00    0.000E+00   -1.604E+01   -4.687E-01
   2.100E+01    4.000E+00    0.000E+00    1.604E+01   -5.313E-01
   0.000E+00    5.000E+00    0.000E+00   -4.052E+01    6.574E-01
   1.000E+00    5.000E+00   -4.956E+00    4.052E+01    3.426E-01
   2.000E+00    5.000E+00   -1.279E+01    4.076E+01    7.522E-02
   3.000E+00    5.000E+00   -1.926E+01    2.442E+01   -9.090E-02
   4.000E+00    5.000E+00   -2.359E+01    1.198E+01   -1.740E-01
   5.000E+00    5.000E+00   -2.625E+01    5.597E+00   -2.113E-01
   6.000E+00    5.000E+00   -2.781E+01    3.232E+00   -2.277E-01
   7.000E+00    5.000E+00   -2.876E+01    2.951E+00   -2.354E-01
   8.000E+00    5.000E+00   -2.936E+01    3.566E+00   -2.390E-01
   9.000E+00    5.000E+00   -2.977E+01    4.398E+00   -2.404E-01
   1.000E+01    5.000E+00   -3.005E+01    4.999E+00   -2.398E-01
   1.100E+01    5.000E+00   -3.022E+01    4.981E+00   -2.374E-01
   1.200E+01    5.000E+00   -3.026E+01    3.933E+00   -2.336E-01
   1.300E+01    5.000E+00   -3.004E+01    1.413E+00   -2.294E-01
   1.400E+01    5.000E+00   -2.936E+01   -2.991E+00   -2.265E-01
   1.500E+01    5.000E+00   -2.785E+01   -9.520E+00   -2.283E-01
   1.600E+01    5.000E+00   -2.496E+01   -1.813E+01   -2.394E-01
   1.700E+01    5.000E+00   -2.010E+01   -2.791E+01   -2.652E-01
   1.800E+01    5.000E+00   -1.309E+01   -3.611E+01   -3.106E-01
   1.900E+01    5.000E+00   -5.080E+00   -3.696E+01   -3.773E-01
   2.000E+01    5.000E+00    0.000E+00   -2.112E+01   -4.591E-01
   2.100E+01    5.000E+00    0.000E+00    2.112E+01   -5.409E-01
   0.000E+00    6.000E+00    0.000E+00   -4.381E+01    6.483E-01
   1.000E+00    6.000E+00   -3.287E+00    4.381E+01    3.517E-01
   2.000E+00    6.000E+00   -9.819E+00    4.729E+01    9.496E-02
   3.000E+00    6.000E+00   -1.567E+01    3.027E+01   -6.725E-02
   4.000E+00    6.000E+00   -1.969E+01    1.600E+01   -1.483E-01
   5.000E+00    6.000E+00   -2.206E+01    7.967E+00   -1.833E-01
   6.000E+00    6.000E+00   -2.328E+01    4.454E+00   -1.972E-01
   7.000E+00    6.000E+00   -2.379E+01    3.462E+00   -2.024E-01
   8.000E+00    6.000E+00   -2.388E+01    3.656E+00   -2.037E-01
   9.000E+00    6.000E+00   -2.373E+01    4.249E+00   -2.027E-01
   1.000E+01    6.000E+00   -2.347E+01    4.738E+00   -1.996E-01
   1.100E+01    6.000E+00   -2.321E+01    4.713E+00   -1.943E-01
   1.200E+01    6.000E+00   -2.302E+01    3.746E+00   -1.872E-01
   1.300E+01    6.000E+00   -2.294E+01    1.336E+00   -1.792E-01
   1.400E+01    6.000E+00   -2.287E+01   -3.066E+00   -1.727E-01
   1.500E+01    6.000E+00   -2.245E+01   -9.938E+00   -1.718E-01
   1.600E+01    6.000E+00   -2.106E+01   -1.952E+01   -1.821E-01
   1.700E+01    6.000E+00   -1.789E+01   -3.108E+01   -2.107E-01
   1.800E+01    6.000E+00   -1.235E+01   -4.166E+01   -2.647E-01
   1.900E+01    6.000E+00   -5.123E+00   -4.419E+01   -3.467E-01
   2.000E+01    6.000E+00    0.000E+00   -2.624E+01   -4.489E-01
   2.100E+01    6.000E+00    0.000E+00    2.624E+01   -5.511E-01
   0.000E+00    7.000E+00    0.000E+00   -4.558E+01    6.385E-01
   1.000E+00    7.000E+00   -1.774E+00    4.558E+01    3.615E-01
   2.000E+00    7.000E+00   -6.949E+00    5.247E+01    1.168E-01
   3.000E+00    7.000E+00   -1.205E+01    3.538E+01   -4.082E-02
   4.000E+00    7.000E+00   -1.562E+01    1.957E+01   -1.197E-01
   5.000E+00    7.000E+00   -1.761E+01    9.949E+00   -1.524E-01
   6.000E+00    7.000E+00   -1.841E+01    5.257E+00   -1.637E-01
   7.000E+00    7.000E+00   -1.845E+01    3.506E+00   -1.664E-01
   8.000E+00    7.000E+00   -1.804E+01    3.244E+00   -1.655E-01
   9.000E+00    7.000E+00   -1.737E+01    3.584E+00   -1.627E-01
   1.000E+01    7.000E+00   -1.661E+01    3.978E+00   -1.579E-01
   1.100E+01    7.000E+00   -1.591E+01    4.014E+00   -1.509E-01
   1.200E+01    7.000E+00   -1.545E+01    3.279E+00   -1.418E-01
   1.300E+01    7.000E+00   -1.536E+01    1.251E+00   -1.314E-01
   1.400E+01    7.000E+00   -1.569E+01   -2.742E+00   -1.221E-01
   1.500E+01    7.000E+00   -1.617E+01   -9.453E+00   -1.184E-01
   1.600E+01    7.000E+00   -1.621E+01   -1.948E+01   -1.270E-01
   1.700E+01    7.000E+00   -1.482E+01   -3.247E+01   -1.572E-01
   1.800E+01    7.000E+00   -1.103E+01   -4.545E+01   -2.185E-01
   1.900E+01    7.000E+00   -4.956E+00   -5.026E+01   -3.153E-01
   2.000E+01    7.000E+00    0.000E+00   -3.120E+01   -4.381E-01
   2.100E+01    7.000E+00    0.000E+00    3.120E+01   -5.619E-01
   0.000E+00    8.000E+00    0.000E+00   -4.591E+01    6.283E-01
   1.000E+00    8.000E+00   -3.351E-01    4.591E+01    3.717E-01
   2.000E+00    8.000E+00   -4.133E+00    5.626E+01    1.402E-01
   3.000E+00    8.000E+00   -8.485E+00    3.973E+01   -1.232E-02
   4.000E+00    8.000E+00   -1.166E+01    2.274E+01   -8.902E-02
   5.000E+00    8.000E+00   -1.334E+01    1.163E+01   -1.196E-01
   6.000E+00    8.000E+00   -1.383E+01    5.747E+00   -1.283E-01
   7.000E+00    8.000E+00   -1.352E+01    3.197E+00   -1.284E-01
   8.000E+00    8.000E+00   -1.273E+01    2.450E+00   -1.254E-01
   9.000E+00    8.000E+00   -1.167E+01    2.523E+00   -1.210E-01
   1.000E+01    8.000E+00   -1.051E+01    2.819E+00   -1.153E-01
   1.100E+01    8.000E+00   -9.427E+00    2.933E+00   -1.077E-01
   1.200E+01    8.000E+00   -8.629E+00    2.481E+00   -9.799E-02
   1.300E+01    8.000E+00   -8.343E+00    9.655E-01   -8.664E-02
   1.400E+01    8.000E+00   -8.736E+00   -2.350E+00   -7.564E-02
   1.500E+01    8.000E+00   -9.730E+00   -8.459E+00   -6.945E-02
   1.600E+01    8.000E+00   -1.085E+01   -1.836E+01   -7.584E-02
   1.700E+01    8.000E+00   -1.110E+01   -3.221E+01   -1.062E-01
   1.800E+01    8.000E+00   -9.179E+00   -4.738E+01   -1.731E-01
   1.900E+01    8.000E+00   -4.554E+00   -5.489E+01   -2.836E-01
   2.000E+01    8.000E+00    0.000E+00   -3.575E+01   -4.270E-01
   2.100E+01    8.000E+00    0.000E+00    3.575E+01   -5.730E-01
   0.000E+00    9.000E+00    0.000E+00   -4.491E+01    6.176E-01
   1.000E+00    9.000E+00    1.003E+00    4.491E+01    3.824E-01
   2.000E+00    9.000E+00   -1.275E+00    5.854E+01    1.651E-01
   3.000E+00    9.000E+00   -4.889E+00    4.334E+01    1.810E-02
   4.000E+00    9.000E+00   -7.784E+00    2.564E+01   -5.677E-02
   5.000E+00    9.000E+00   -9.357E+00    1.321E+01   -8.551E-02
   6.000E+00    9.000E+00   -9.743E+00    6.133E+00   -9.169E-02
   7.000E+00    9.000E+00   -9.284E+00    2.738E+00   -8.905E-02
   8.000E+00    9.000E+00   -8.293E+00    1.460E+00   -8.378E-02
   9.000E+00    9.000E+00   -7.005E+00    1.234E+00   -7.786E-02
   1.000E+01    9.000E+00   -5.597E+00    1.411E+00   -7.141E-02
   1.100E+01    9.000E+00   -4.245E+00    1.581E+00   -6.385E-02
   1.200E+01    9.000E+00   -3.152E+00    1.388E+00   -5.462E-02
   1.300E+01    9.000E+00   -2.566E+00    3.790E-01   -4.370E-02
   1.400E+01    9.000E+00   -2.737E+00   -2.178E+00   -3.247E-02
   1.500E+01    9.000E+00   -3.786E+00   -7.411E+00   -2.492E-02
   1.600E+01    9.000E+00   -5.494E+00   -1.665E+01   -2.920E-02
   1.700E+01    9.000E+00   -7.031E+00   -3.068E+01   -5.868E-02
   1.800E+01    9.000E+00   -6.901E+00   -4.751E+01   -1.295E-01
   1.900E+01    9.000E+00   -3.926E+00   -5.786E+01   -2.521E-01
   2.000E+01    9.000E+00    0.000E+00   -3.968E+01   -4.158E-01
   2.100E+01    9.000E+00    0.000E+00    3.968E+01   -5.842E-01
   0.000E+00    1.000E+01    0.000E+00   -4.278E+01    6.067E-01
   1.000E+00    1.000E+01    2.129E+00    4.278E+01    3.933E-01
   2.000E+00    1.000E+01    1.583E+00    5.909E+01    1.924E-01
   3.000E+00    1.000E+01   -1.130E+00    4.606E+01    5.109E-02
   4.000E+00    1.000E+01   -3.819E+00    2.833E+01   -2.250E-02
   5.000E+00    1.000E+01   -5.469E+00    1.486E+01   -5.021E-02
   6.000E+00    1.000E+01   -5.973E+00    6.637E+00   -5.434E-02
   7.000E+00    1.000E+01   -5.576E+00    2.341E+00   -4.907E-02
   8.000E+00    1.000E+01   -4.581E+00    4.647E-01   -4.134E-02
   9.000E+00    1.000E+01   -3.233E+00   -1.142E-01   -3.367E-02
   1.000E+01    1.000E+01   -1.726E+00   -9.519E-02   -2.641E-02
   1.100E+01    1.000E+01   -2.404E-01    9.519E-02   -1.902E-02
   1.200E+01    1.000E+01    1.033E+00    1.142E-01   -1.076E-02
   1.300E+01    1.000E+01    1.877E+00   -4.647E-01   -1.251E-03
   1.400E+01    1.000E+01    2.040E+00   -2.341E+00    8.720E-03
   1.500E+01    1.000E+01    1.267E+00   -6.637E+00    1.594E-02
   1.600E+01    1.000E+01   -5.306E-01   -1.486E+01    1.275E-02
   1.700E+01    1.000E+01   -2.881E+00   -2.833E+01   -1.552E-02
   1.800E+01    1.000E+01   -4.330E+00   -4.606E+01   -8.853E-02
   1.900E+01    1.000E+01   -3.107E+00   -5.909E+01   -2.216E-01
   2.000E+01    1.000E+01    0.000E+00   -4.278E+01   -4.045E-01
   2.100E+01    1.000E+01    0.000E+00    4.278E+01   -5.955E-01
   0.000E+00    1.100E+01    0.000E+00   -3.968E+01    5.955E-01
   1.000E+00    1.100E+01    3.107E+00    3.968E+01    4.045E-01
   2.000E+00    1.100E+01    4.330E+00    5.786E+01    2.216E-01
   3.000E+00    1.100E+01    2.881E+00    4.751E+01    8.853E-02
   4.000E+00    1.100E+01    5.306E-01    3.068E+01    1.552E-02
   5.000E+00    1.100E+01   -1.267E+00    1.665E+01   -1.275E-02
   6.000E+00    1.100E+01   -2.040E+00    7.411E+00   -1.594E-02
   7.000E+00    1.100E+01   -1.877E+00    2.178E+00   -8.720E-03
   8.000E+00    1.100E+01   -1.033E+00   -3.790E-01    1.251E-03
   9.000E+00    1.100E+01    2.404E-01   -1.388E+00    1.076E-02
   1.000E+01    1.100E+01    1.726E+00   -1.581E+00    1.902E-02
   1.100E+01    1.100E+01    3.233E+00   -1.411E+00    2.641E-02
   1.200E+01    1.100E+01    4.581E+00   -1.234E+00    3.367E-02
   1.300E+01    1.100E+01    5.576E+00   -1.460E+00    4.134E-02
   1.400E+01    1.100E+01    5.973E+00   -2.738E+00    4.907E-02
   1.500E+01    1.100E+01    5.469E+00   -6.133E+00    5.434E-02
   1.600E+01    1.100E+01    3.819E+00   -1.321E+01    5.021E-02
   1.700E+01    1.100E+01    1.130E+00   -2.564E+01    2.250E-02
   1.800E+01    1.100E+01   -1.583E+00   -4.334E+01   -5.109E-02
   1.900E+01    1.100E+01   -2.129E+00   -5.854E+01   -1.924E-01
   2.000E+01    1.100E+01    0.000E+00   -4.491E+01   -3.933E-01
   2.100E+01    1.100E+01    0.000E+00    4.491E+01   -6.067E-01
   0.000E+00    1.200E+01    0.000E+00   -3.575E+01    5.842E-01
   1.000E+00    1.200E+01    3.926E+00    3.575E+01    4.158E-01
   2.000E+00    1.200E+01    6.901E+00    5.489E+01    2.521E-01
   3.000E+00    1.200E+01    7.031E+00    4.738E+01    1.295E-01
   4.000E+00    1.200E+01    5.494E+00    3.221E+01    5.868E-02
   5.000E+00    1.200E+01    3.786E+00    1.836E+01    2.920E-02
   6.000E+00    1.200E+01    2.737E+00    8.459E+00    2.492E-02
   7.000E+00    1.200E+01    2.566E+00    2.350E+00    3.247E-02
   8.000E+00    1.200E+01    3.152E+00   -9.655E-01    4.370E-02
   9.000E+00    1.200E+01    4.245E+00   -2.481E+00    5.462E-02
   1.000E+01    1.200E+01    5.597E+00   -2.933E+00    6.385E-02
   1.100E+01    1.200E+01    7.005E+00   -2.819E+00    7.141E-02
   1.200E+01    1.200E+01    8.293E+00   -2.523E+00    7.786E-02
   1.300E+01    1.200E+01    9.284E+00   -2.450E+00    8.378E-02
   1.400E+01    1.200E+01    9.743E+00   -3.197E+00    8.905E-02
   1.500E+01    1.200E+01    9.357E+00   -5.747E+00    9.169E-02
   1.600E+01    1.200E+01    7.784E+00   -1.163E+01    8.551E-02
   1.700E+01    1.200E+01    4.889E+00   -2.274E+01    5.677E-02
   1.800E+01    1.200E+01    1.275E+00   -3.973E+01   -1.810E-02
   1.900E+01    1.200E+01   -1.003E+00   -5.626E+01   -1.651E-01
   2.000E+01    1.200E+01    0.000E+00   -4.591E+01   -3.824E-01
   2.100E+01    1.200E+01    0.000E+00    4.591E+01   -6.176E-01
   0.000E+00    1.300E+01    0.000E+00   -3.120E+01    5.730E-01
   1.000E+00    1.300E+01    4.554E+00    3.120E+01    4.270E-01
   2.000E+00    1.300E+01    9.179E+00    5.026E+01    2.836E-01
   3.000E+00    1.300E+01    1.110E+01    4.545E+01    1.731E-01
   4.000E+00    1.300E+01    1.085E+01    3.247E+01    1.062E-01
   5.000E+00    1.300E+01    9.730E+00    1.948E+01    7.584E-02
   6.000E+00    1.300E+01    8.736E+00    9.453E+00    6.945E-02
   7.000E+00    1.300E+01    8.343E+00    2.742E+00    7.564E-02
   8.000E+00    1.300E+01    8.629E+00   -1.251E+00    8.664E-02
   9.000E+00    1.300E+01    9.427E+00   -3.279E+00    9.799E-02
   1.000E+01    1.300E+01    1.051E+01   -4.014E+00    1.077E-01
   1.100E+01    1.300E+01    1.167E+01   -3.978E+00    1.153E-01
   1.200E+01    1.300E+01    1.273E+01   -3.584E+00    1.210E-01
   1.300E+01    1.300E+01    1.352E+01   -3.244E+00    1.254E-01
   1.400E+01    1.300E+01    1.383E+01   -3.506E+00    1.284E-01
   1.500E+01    1.300E+01    1.334E+01   -5.257E+00    1.283E-01
   1.600E+01    1.300E+01    1.166E+01   -9.949E+00    1.196E-01
   1.700E+01    1.300E+01    8.485E+00   -1.957E+01    8.902E-02
   1.800E+01    1.300E+01    4.133E+00   -3.538E+01    1.232E-02
   1.900E+01    1.300E+01    3.351E-01   -5.247E+01   -1.402E-01
   2.000E+01    1.300E+01    0.000E+00   -4.558E+01   -3.717E-01
   2.100E+01    1.300E+01    0.000E+00    4.558E+01   -6.283E-01
   0.000E+00    1.400E+01    0.000E+00   -2.624E+01    5.619E-01
   1.000E+00    1.400E+01    4.956E+00    2.624E+01    4.381E-01
   2.000E+00    1.400E+01    1.103E+01    4.419E+01    3.153E-01
   3.000E+00    1.400E+01    1.482E+01    4.166E+01    2.185E-01
   4.000E+00    1.400E+01    1.621E+01    3.108E+01    1.572E-01
   5.000E+00    1.400E+01    1.617E+01    1.952E+01    1.270E-01
   6.000E+00    1.400E+01    1.569E+01    9.938E+00    1.184E-01
   7.000E+00    1.400E+01    1.536E+01    3.066E+00    1.221E-01
   8.000E+00    1.400E+01    1.545E+01   -1.336E+00    1.314E-01
   9.000E+00    1.400E+01    1.591E+01   -3.746E+00    1.418E-01
   1.000E+01    1.400E+01    1.661E+01   -4.713E+00    1.509E-01
   1.100E+01    1.400E+01    1.737E+01   -4.738E+00    1.579E-01
   1.200E+01    1.400E+01    1.804E+01   -4.249E+00    1.627E-01
   1.300E+01    1.400E+01    1.845E+01   -3.656E+00    1.655E-01
   1.400E+01    1.400E+01    1.841E+01   -3.462E+00    1.664E-01
   1.500E+01    1.400E+01    1.761E+01   -4.454E+00    1.637E-01
   1.600E+01    1.400E+01    1.562E+01   -7.967E+00    1.524E-01
   1.700E+01    1.400E+01    1.205E+01   -1.600E+01    1.197E-01
   1.800E+01    1.400E+01    6.949E+00   -3.027E+01    4.082E-02
   1.900E+01    1.400E+01    1.774E+00   -4.729E+01   -1.168E-01
   2.000E+01    1.400E+01    0.000E+00   -4.381E+01   -3.615E-01
   2.100E+01    1.400E+01    0.000E+00    4.381E+01   -6.385E-01
   0.000E+00    1.500E+01    0.000E+00   -2.112E+01    5.511E-01
   1.000E+00    1.500E+01    5.123E+00    2.112E+01    4.489E-01
   2.000E+00    1.500E+01    1.235E+01    3.696E+01    3.467E-01
   3.000E+00    1.500E+01    1.789E+01    3.611E+01    2.647E-01
   4.000E+00    1.500E+01    2.106E+01    2.791E+01    2.107E-01
   5.000E+00    1.500E+01    2.245E+01    1.813E+01    1.821E-01
   6.000E+00    1.500E+01    2.287E+01    9.520E+00    1.718E-01
   7.000E+00    1.500E+01    2.294E+01    2.991E+00    1.727E-01
   8.000E+00    1.500E+01    2.302E+01   -1.413E+00    1.792E-01
   9.000E+00    1.500E+01    2.321E+01   -3.933E+00    1.872E-01
   1.000E+01    1.500E+01    2.347E+01   -4.981E+00    1.943E-01
   1.100E+01    1.500E+01    2.373E+01   -4.999E+00    1.996E-01
   1.200E+01    1.500E+01    2.388E+01   -4.398E+00    2.027E-01
   1.300E+01    1.500E+01    2.379E+01   -3.566E+00    2.037E-01
   1.400E+01    1.500E+01    2.328E+01   -2.951E+00    2.024E-01
   1.500E+01    1.500E+01    2.206E+01   -3.232E+00    1.972E-01
   1.600E+01    1.500E+01    1.969E+01   -5.597E+00    1.833E-01
   1.700E+01    1.500E+01    1.567E+01   -1.198E+01    1.483E-01
   1.800E+01    1.500E+01    9.819E+00   -2.442E+01    6.725E-02
   1.900E+01    1.500E+01    3.287E+00   -4.076E+01   -9.496E-02
   2.000E+01    1.500E+01    0.000E+00   -4.052E+01   -3.517E-01
   2.100E+01    1.500E+01    0.000E+00    4.052E+01   -6.483E-01
   0.000E+00    1.600E+01    0.000E+00   -1.604E+01    5.409E-01
   1.000E+00    1.600E+01    5.080E+00    1.604E+01    4.591E-01
   2.000E+00    1.600E+01    1.309E+01    2.896E+01    3.773E-01
   3.000E+00    1.600E+01    2.010E+01    2.910E+01    3.106E-01
   4.000E+00    1.600E+01    2.496E+01    2.305E+01    2.652E-01
   5.000E+00    1.600E+01    2.785E+01    1.524E+01    2.394E-01
   6.000E+00    1.600E+01    2.936E+01    8.013E+00    2.283E-01
   7.000E+00    1.600E+01    3.004E+01    2.314E+00    2.265E-01
   8.000E+00    1.600E+01    3.026E+01   -1.631E+00    2.294E-01
   9.000E+00    1.600E+01    3.022E+01   -3.902E+00    2.336E-01
   1.000E+01    1.600E+01    3.005E+01   -4.805E+00    2.374E-01
   1.100E+01    1.600E+01    2.977E+01   -4.715E+00    2.398E-01
   1.200E+01    1.600E+01    2.936E+01   -3.991E+00    2.404E-01
   1.300E+01    1.600E+01    2.876E+01   -2.966E+00    2.390E-01
   1.400E+01    1.600E+01    2.781E+01   -2.007E+00    2.354E-01
   1.500E+01    1.600E+01    2.625E+01   -1.663E+00    2.277E-01
   1.600E+01    1.600E+01    2.359E+01   -2.946E+00    2.113E-01
   1.700E+01    1.600E+01    1.926E+01   -7.648E+00    1.740E-01
   1.800E+01    1.600E+01    1.279E+01   -1.796E+01    9.090E-02
   1.900E+01    1.600E+01    4.956E+00   -3.292E+01   -7.522E-02
   2.000E+01    1.600E+01    0.000E+00   -3.556E+01   -3.426E-01
   2.100E+01    1.600E+01    0.000E+00    3.556E+01   -6.574E-01
   0.000E+00    1.700E+01    0.000E+00   -1.115E+01    5.313E-01
   1.000E+00    1.700E+01    4.891E+00    1.115E+01    4.687E-01
   2.000E+00    1.700E+01    1.328E+01    2.056E+01    4.062E-01
   3.000E+00    1.700E+01    2.134E+01    2.104E+01    3.545E-01
   4.000E+00    1.700E+01    2.755E+01    1.684E+01    3.181E-01
   5.000E+00    1.700E+01    3.173E+01    1.107E+01    2.960E-01
   6.000E+00    1.700E+01    3.421E+01    5.536E+00    2.846E-01
   7.000E+00    1.700E+01    3.542E+01    1.101E+00    2.800E-01
   8.000E+00    1.700E+01    3.571E+01   -1.925E+00    2.786E-01
   9.000E+00    1.700E+01    3.540E+01   -3.591E+00    2.783E-01
   1.000E+01    1.700E+01    3.474E+01   -4.142E+00    2.778E-01
   1.100E+01    1.700E+01    3.390E+01   -3.878E+00    2.764E-01
   1.200E+01    1.700E+01    3.299E+01   -3.079E+00    2.738E-01
   1.300E+01    1.700E+01    3.202E+01   -1.990E+00    2.698E-01
   1.400E+01    1.700E+01    3.087E+01   -8.588E-01    2.636E-01
   1.500E+01    1.700E+01    2.928E+01   -7.106E-02    2.535E-01
   1.600E+01    1.700E+01    2.674E+01   -4.072E-01    2.347E-01
   1.700E+01    1.700E+01    2.251E+01   -3.419E+00    1.952E-01
   1.800E+01    1.700E+01    1.580E+01   -1.125E+01    1.103E-01
   1.900E+01    1.700E+01    6.832E+00   -2.395E+01   -5.859E-02
   2.000E+01    1.700E+01    0.000E+00   -2.873E+01   -3.345E-01
   2.100E+01    1.700E+01    0.000E+00    2.873E+01   -6.655E-01
   0.000E+00    1.800E+01    0.000E+00   -6.523E+00    5.230E-01
   1.000E+00    1.800E+01    4.622E+00    6.523E+00    4.770E-01
   2.000E+00    1.800E+01    1.297E+01    1.221E+01    4.315E-01
   3.000E+00    1.800E+01    2.146E+01    1.256E+01    3.933E-01
   4.000E+00    1.800E+01    2.838E+01    9.916E+00    3.652E-01
   5.000E+00    1.800E+01    3.324E+01    6.205E+00    3.464E-01
   6.000E+00    1.800E+01    3.614E+01    2.639E+00    3.344E-01
   7.000E+00    1.800E+01    3.740E+01   -1.563E-01    3.266E-01
   8.000E+00    1.800E+01    3.740E+01   -1.924E+00    3.208E-01
   9.000E+00    1.800E+01    3.658E+01   -2.774E+00    3.157E-01
   1.000E+01    1.800E+01    3.535E+01   -2.906E+00    3.108E-01
   1.100E+01    1.800E+01    3.400E+01   -2.533E+00    3.056E-01
   1.200E+01    1.800E+01    3.275E+01   -1.827E+00    2.998E-01
   1.300E+01    1.800E+01    3.168E+01   -9.176E-01    2.931E-01
   1.400E+01    1.800E+01    3.073E+01    8.215E-02    2.846E-01
   1.500E+01    1.800E+01    2.968E+01    9.859E-01    2.722E-01
   1.600E+01    1.800E+01    2.798E+01    1.292E+00    2.510E-01
   1.700E+01    1.800E+01    2.467E+01   -1.081E-01    2.094E-01
   1.800E+01    1.800E+01    1.850E+01   -5.079E+00    1.231E-01
   1.900E+01    1.800E+01    8.869E+00   -1.432E+01   -4.701E-02
   2.000E+01    1.800E+01    0.000E+00   -1.986E+01   -3.283E-01
   2.100E+01    1.800E+01    0.000E+00    1.986E+01   -6.717E-01
   0.000E+00    1.900E+01    0.000E+00   -2.407E+00    5.170E-01
   1.000E+00    1.900E+01    4.116E+00    2.407E+00    4.830E-01
   2.000E+00    1.900E+01    1.169E+01    4.640E+00    4.501E-01
   3.000E+00    1.900E+01    1.954E+01    4.701E+00    4.219E-01
   4.000E+00    1.900E+01    2.596E+01    3.498E+00    3.996E-01
   5.000E+00    1.900E+01    3.029E+01    1.876E+00    3.825E-01
   6.000E+00    1.900E+01    3.253E+01    4.042E-01    3.692E-01
   7.000E+00    1.900E+01    3.299E+01   -6.194E-01    3.583E-01
   8.000E+00    1.900E+01    3.222E+01   -1.154E+00    3.486E-01
   9.000E+00    1.900E+01    3.076E+01   -1.317E+00    3.398E-01
   1.000E+01    1.900E+01    2.908E+01   -1.221E+00    3.315E-01
   1.100E+01    1.900E+01    2.751E+01   -9.612E-01    3.234E-01
   1.200E+01    1.900E+01    2.627E+01   -5.952E-01    3.153E-01
   1.300E+01    1.900E+01    2.550E+01   -1.470E-01    3.065E-01
   1.400E+01    1.900E+01    2.521E+01    3.805E-01    2.959E-01
   1.500E+01    1.900E+01    2.525E+01    9.419E-01    2.813E-01
   1.600E+01    1.900E+01    2.518E+01    1.358E+00    2.574E-01
   1.700E+01    1.900E+01    2.394E+01    1.135E+00    2.133E-01
   1.800E+01    1.900E+01    1.964E+01   -7.784E-01    1.256E-01
   1.900E+01    1.900E+01    1.058E+01   -5.266E+00   -4.378E-02
   2.000E+01    1.900E+01    0.000E+00   -9.281E+00   -3.256E-01
   2.100E+01    1.900E+01    0.000E+00    9.281E+00   -6.744E-01
   0.000E+00    2.000E+01    0.000E+00    0.000E+00    5.142E-01
   1.000E+00    2.000E+01    2.407E+00    0.000E+00    4.858E-01
   2.000E+00    2.000E+01    7.047E+00    0.000E+00    4.588E-01
   3.000E+00    2.000E+01    1.175E+01    0.000E+00    4.351E-01
   4.000E+00    2.000E+01    1.525E+01    0.000E+00    4.150E-01
   5.000E+00    2.000E+01    1.712E+01    0.000E+00    3.980E-01
   6.000E+00    2.000E+01    1.753E+01    0.000E+00    3.834E-01
   7.000E+00    2.000E+01    1.691E+01    0.000E+00    3.706E-01
   8.000E+00    2.000E+01    1.575E+01    0.000E+00    3.590E-01
   9.000E+00    2.000E+01    1.443E+01    0.000E+00    3.485E-01
   1.000E+01    2.000E+01    1.321E+01    0.000E+00    3.387E-01
   1.100E+01    2.000E+01    1.225E+01    0.000E+00    3.294E-01
   1.200E+01    2.000E+01    1.166E+01    0.000E+00    3.201E-01
   1.300E+01    2.000E+01    1.151E+01    0.000E+00    3.102E-01
   1.400E+01    2.000E+01    1.189E+01    0.000E+00    2.982E-01
   1.500E+01    2.000E+01    1.283E+01    0.000E+00    2.814E-01
   1.600E+01    2.000E+01    1.419E+01    0.000E+00    2.545E-01
   1.700E+01    2.000E+01    1.533E+01    0.000E+00    2.064E-01
   1.800E+01    2.000E+01    1.455E+01    0.000E+00    1.159E-01
   1.900E+01    2.000E+01    9.281E+00    0.000E+00   -5.208E-02